"Order";"Symbol";"Name";"AtomicNumber";"Group";"Period";"Type";"Subtype";"State";"Valence";"AmountOfValences";"AtomicWeight._uma";"density_g_mL";"BoilingPoint";"FusionPoint";"Type_Metal";"Type_NonMetal";"Type_Metalloide";"Type_NobleGas";"State_Solid";"State_Liquid";"State_Gas";"State_Dude";"Subtype_Halogen";"ElementSelector01"
1;"H";"Hidrógeno";1;1;1;"No Metal";"Otros no metales";"Gas";"1";1;1.007975;6.99e-5;-252.9;-259.1;FALSE;TRUE;FALSE;FALSE;FALSE;FALSE;TRUE;FALSE;FALSE;"  1 - H  - Hidrógeno"
2;"He";"Helio";2;18;1;"Gas Noble";"-";"Gas";"0";1;4.002602;1.79e-4;-268.9;-272.2;FALSE;FALSE;FALSE;TRUE;FALSE;FALSE;TRUE;FALSE;FALSE;"  2 - He - Helio"
3;"Li";"Litio";3;1;2;"Metal";"Alcalino";"Sólido";"1";1;6.9675;543;1342;180.5;TRUE;FALSE;FALSE;FALSE;TRUE;FALSE;FALSE;FALSE;FALSE;"  3 - Li - Litio"
4;"Be";"Berilio";4;2;2;"Metal";"Tierras alcalinas";"Sólido";"2";1;9.0121831;1.85;2970;1278;TRUE;FALSE;FALSE;FALSE;TRUE;FALSE;FALSE;FALSE;FALSE;"  4 - Be - Berilio"
5;"B";"Boro";5;13;2;"Metaloide";"-";"Sólido";"3";1;10.8135;2.34;2550;2079;FALSE;FALSE;FALSE;FALSE;TRUE;FALSE;FALSE;FALSE;FALSE;"  5 - B  - Boro"
6;"C";"Carbón";6;14;2;"No Metal";"Otros no metales";"Sólido";"2,4";2;12.0106;2.25;4827;3367;FALSE;TRUE;FALSE;FALSE;TRUE;FALSE;FALSE;FALSE;FALSE;"  6 - C  - Carbón"
7;"N";"Nitrógeno";7;15;2;"No Metal";"Otros no metales";"Gas";"2,3,4,5";4;14.006855;0.00125;-195.8;-209.9;FALSE;TRUE;FALSE;FALSE;FALSE;FALSE;TRUE;FALSE;FALSE;"  7 - N  - Nitrógeno"
8;"O";"Oxígeno";8;16;2;"No Metal";"Otros no metales";"Gas";"2";1;15.9994;0.00143;-183;-218.4;FALSE;TRUE;FALSE;FALSE;FALSE;FALSE;TRUE;FALSE;FALSE;"  8 - O  - Oxígeno"
9;"F";"Flúor";9;17;2;"No Metal";"Halógenos";"Gas";"1";1;18.99840316;0.0017;-188.1;-219.8;FALSE;TRUE;FALSE;FALSE;FALSE;FALSE;TRUE;FALSE;TRUE;"  9 - F  - Flúor"
10;"Ne";"Neón";10;18;2;"Gas Noble";"-";"Gas";"0";1;20.1797;9e-4;-248.7;-248;FALSE;FALSE;FALSE;TRUE;FALSE;FALSE;TRUE;FALSE;FALSE;" 10 - Ne - Neón"
11;"Na";"Sodio";11;1;3;"Metal";"Alcalino";"Sólido";"1";1;22.98976928;971;883;97.8;TRUE;FALSE;FALSE;FALSE;TRUE;FALSE;FALSE;FALSE;FALSE;" 11 - Na - Sodio"
12;"Mg";"Magnesio";12;2;3;"Metal";"Tierras alcalinas";"Sólido";"2";1;24.3055;1.74;1090;649;TRUE;FALSE;FALSE;FALSE;TRUE;FALSE;FALSE;FALSE;FALSE;" 12 - Mg - Magnesio"
13;"Al";"Aluminio";13;13;3;"Metal";"Metales del Bloque p";"Sólido";"3";1;26.9815385;2.7;2467;660;TRUE;FALSE;FALSE;FALSE;TRUE;FALSE;FALSE;FALSE;FALSE;" 13 - Al - Aluminio"
14;"Si";"Silicio";14;14;3;"Metaloide";"-";"Sólido";"4";1;28085;2.33;2355;1410;FALSE;FALSE;FALSE;FALSE;TRUE;FALSE;FALSE;FALSE;FALSE;" 14 - Si - Silicio"
15;"P";"Fósforo";15;15;3;"No Metal";"Otros no metales";"Sólido";"3,4,5";3;30.973762;1.82;280;44.1;FALSE;TRUE;FALSE;FALSE;TRUE;FALSE;FALSE;FALSE;FALSE;" 15 - P  - Fósforo"
16;"S";"Azufre";16;16;3;"No Metal";"Otros no metales";"Sólido";"2,4,6";3;32.0675;2.07;444.7;112.8;FALSE;TRUE;FALSE;FALSE;TRUE;FALSE;FALSE;FALSE;FALSE;" 16 - S  - Azufre"
17;"Cl";"Cloro";17;17;3;"No Metal";"Halógenos";"Gas";"1,3,5,7";4;35.4515;0.00321;-34.6;-101;FALSE;TRUE;FALSE;FALSE;FALSE;FALSE;TRUE;FALSE;TRUE;" 17 - Cl - Cloro"
18;"Ar";"Argón";18;18;3;"Gas Noble";"-";"Gas";"0";1;39948;0.00178;-185.7;-189.2;FALSE;FALSE;FALSE;TRUE;FALSE;FALSE;TRUE;FALSE;FALSE;" 18 - Ar - Argón"
19;"K";"Potasio";19;1;4;"Metal";"Alcalino";"Sólido";"1";1;39.0983;0.86;760;63.25;TRUE;FALSE;FALSE;FALSE;TRUE;FALSE;FALSE;FALSE;FALSE;" 19 - K  - Potasio"
20;"Ca";"Calcio";20;2;4;"Metal";"Tierras alcalinas";"Sólido";"2";1;40078;1.55;1484;839;TRUE;FALSE;FALSE;FALSE;TRUE;FALSE;FALSE;FALSE;FALSE;" 20 - Ca - Calcio"
21;"Sc";"Escandio";21;3;4;"Metal";"Metales de transición";"Sólido";"3";1;44.955908;2.99;2832;1541;TRUE;FALSE;FALSE;FALSE;TRUE;FALSE;FALSE;FALSE;FALSE;" 21 - Sc - Escandio"
22;"Ti";"Titanio";22;4;4;"Metal";"Metales de transición";"Sólido";"3,4";2;47867;4.54;3287;1660;TRUE;FALSE;FALSE;FALSE;TRUE;FALSE;FALSE;FALSE;FALSE;" 22 - Ti - Titanio"
23;"V";"Vanadio";23;5;4;"Metal";"Metales de transición";"Sólido";"2,3,4,5";4;50.9415;6.11;3380;1890;TRUE;FALSE;FALSE;FALSE;TRUE;FALSE;FALSE;FALSE;FALSE;" 23 - V  - Vanadio"
24;"Cr";"Cromo";24;6;4;"Metal";"Metales de transición";"Sólido";"2,3,6";3;51.9961;7.19;2672;1857;TRUE;FALSE;FALSE;FALSE;TRUE;FALSE;FALSE;FALSE;FALSE;" 24 - Cr - Cromo"
25;"Mn";"Manganeso";25;7;4;"Metal";"Metales de transición";"Sólido";"2,3,4,6,7";5;54.938044;7.43;1962;1244;TRUE;FALSE;FALSE;FALSE;TRUE;FALSE;FALSE;FALSE;FALSE;" 25 - Mn - Manganeso"
26;"Fe";"Hierro";26;8;4;"Metal";"Metales de transición";"Sólido";"2,3";2;55845;7.86;2750;1535;TRUE;FALSE;FALSE;FALSE;TRUE;FALSE;FALSE;FALSE;FALSE;" 26 - Fe - Hierro"
27;"Co";"Cobalto";27;9;4;"Metal";"Metales de transición";"Sólido";"2,3";2;58.933194;8.9;2870;1495;TRUE;FALSE;FALSE;FALSE;TRUE;FALSE;FALSE;FALSE;FALSE;" 27 - Co - Cobalto"
28;"Ni";"Níquel";28;10;4;"Metal";"Metales de transición";"Sólido";"2,3";2;58.6934;8.9;2730;1453;TRUE;FALSE;FALSE;FALSE;TRUE;FALSE;FALSE;FALSE;FALSE;" 28 - Ni - Níquel"
29;"Cu";"Cobre";29;11;4;"Metal";"Metales de transición";"Sólido";"1,2";2;63546;8.96;2567;1083;TRUE;FALSE;FALSE;FALSE;TRUE;FALSE;FALSE;FALSE;FALSE;" 29 - Cu - Cobre"
30;"Zn";"Zinc";30;12;4;"Metal";"Metales de transición";"Sólido";"2";1;65.38;7.13;906;419.6;TRUE;FALSE;FALSE;FALSE;TRUE;FALSE;FALSE;FALSE;FALSE;" 30 - Zn - Zinc"
31;"Ga";"Galio";31;13;4;"Metal";"Metales del Bloque p";"Líquido";"3";1;69723;5.9;2403;29.8;TRUE;FALSE;FALSE;FALSE;FALSE;TRUE;FALSE;FALSE;FALSE;" 31 - Ga - Galio"
32;"Ge";"Germanio";32;14;4;"Metaloide";"-";"Sólido";"4";1;72.63;5.32;2830;947.4;FALSE;FALSE;FALSE;FALSE;TRUE;FALSE;FALSE;FALSE;FALSE;" 32 - Ge - Germanio"
33;"As";"Arsénico";33;15;4;"Metaloide";"-";"Sólido";"3,5";2;74.921595;5.73;617;817;FALSE;FALSE;FALSE;FALSE;TRUE;FALSE;FALSE;FALSE;FALSE;" 33 - As - Arsénico"
34;"Se";"Selenio";34;16;4;"No Metal";"Otros no metales";"Sólido";"4,6";2;78971;4.79;685;217;FALSE;TRUE;FALSE;FALSE;TRUE;FALSE;FALSE;FALSE;FALSE;" 34 - Se - Selenio"
35;"Br";"Bromo";35;17;4;"No Metal";"Halógenos";"Líquido";"1,5";2;79904;3.12;58.8;-7.2;FALSE;TRUE;FALSE;FALSE;FALSE;TRUE;FALSE;FALSE;TRUE;" 35 - Br - Bromo"
36;"Kr";"Criptón";36;18;4;"Gas Noble";"-";"Gas";"0";1;83798;0.00374;-152;-157;FALSE;FALSE;FALSE;TRUE;FALSE;FALSE;TRUE;FALSE;FALSE;" 36 - Kr - Criptón"
37;"Rb";"Rubidio";37;1;5;"Metal";"Alcalino";"Sólido";"1";1;85.4678;1.53;686;38.9;TRUE;FALSE;FALSE;FALSE;TRUE;FALSE;FALSE;FALSE;FALSE;" 37 - Rb - Rubidio"
38;"Sr";"Estroncio";38;2;5;"Metal";"Tierras alcalinas";"Sólido";"2";1;87.62;2.54;1384;769;TRUE;FALSE;FALSE;FALSE;TRUE;FALSE;FALSE;FALSE;FALSE;" 38 - Sr - Estroncio"
39;"Y";"Yodo";39;3;5;"Metal";"Metales de transición";"Sólido";"3";1;88.90584;4.47;3337;1523;TRUE;FALSE;FALSE;FALSE;TRUE;FALSE;FALSE;FALSE;FALSE;" 39 - Y  - Yodo"
40;"Zr";"Circonio";40;4;5;"Metal";"Metales de transición";"Sólido";"4";1;91224;6.51;4377;1852;TRUE;FALSE;FALSE;FALSE;TRUE;FALSE;FALSE;FALSE;FALSE;" 40 - Zr - Circonio"
41;"Nb";"Niobio";41;5;5;"Metal";"Metales de transición";"Sólido";"3,5";2;92.90637;8.57;4742;2468;TRUE;FALSE;FALSE;FALSE;TRUE;FALSE;FALSE;FALSE;FALSE;" 41 - Nb - Niobio"
42;"Mo";"Molibdeno";42;6;5;"Metal";"Metales de transición";"Sólido";"2,3,4,5,6";5;95.95;10.2;4612;2617;TRUE;FALSE;FALSE;FALSE;TRUE;FALSE;FALSE;FALSE;FALSE;" 42 - Mo - Molibdeno"
43;"Tc";"Tecnecio";43;7;5;"Metal";"Metales de transición";"Sólido";"7";1;98;11.5;4877;2172;TRUE;FALSE;FALSE;FALSE;TRUE;FALSE;FALSE;FALSE;FALSE;" 43 - Tc - Tecnecio"
44;"Ru";"Rutenio";44;8;5;"Metal";"Metales de transición";"Sólido";"2,3,4,6,8";5;101.07;12.4;3900;2310;TRUE;FALSE;FALSE;FALSE;TRUE;FALSE;FALSE;FALSE;FALSE;" 44 - Ru - Rutenio"
45;"Rh";"Rodio";45;9;5;"Metal";"Metales de transición";"Sólido";"2,3,4";3;102.9055;12.4;3727;1966;TRUE;FALSE;FALSE;FALSE;TRUE;FALSE;FALSE;FALSE;FALSE;" 45 - Rh - Rodio"
46;"Pd";"Paladio";46;10;5;"Metal";"Metales de transición";"Sólido";"2,4";2;106.42;12;3140;1554;TRUE;FALSE;FALSE;FALSE;TRUE;FALSE;FALSE;FALSE;FALSE;" 46 - Pd - Paladio"
47;"Ag";"Plata";47;11;5;"Metal";"Metales de transición";"Sólido";"1";1;107.8682;10.5;2212;962;TRUE;FALSE;FALSE;FALSE;TRUE;FALSE;FALSE;FALSE;FALSE;" 47 - Ag - Plata"
48;"Cd";"Cadmio";48;12;5;"Metal";"Metales de transición";"Sólido";"2";1;112414;8.65;765;320.9;TRUE;FALSE;FALSE;FALSE;TRUE;FALSE;FALSE;FALSE;FALSE;" 48 - Cd - Cadmio"
49;"In";"Indio";49;13;5;"Metal";"Metales del Bloque p";"Sólido";"3";1;114818;7.31;2080;156.6;TRUE;FALSE;FALSE;FALSE;TRUE;FALSE;FALSE;FALSE;FALSE;" 49 - In - Indio"
50;"Sn";"Estaño";50;14;5;"Metal";"Metales del Bloque p";"Sólido";"2,4";2;118.71;7.31;2270;232;TRUE;FALSE;FALSE;FALSE;TRUE;FALSE;FALSE;FALSE;FALSE;" 50 - Sn - Estaño"
51;"Sb";"Antimonio";51;15;5;"Metaloide";"-";"Sólido";"3,5";2;121.76;6.69;1950;631;FALSE;FALSE;FALSE;FALSE;TRUE;FALSE;FALSE;FALSE;FALSE;" 51 - Sb - Antimonio"
52;"Te";"Telurio";52;16;5;"Metaloide";"-";"Sólido";"2,4,6";3;127.6;6.24;989.8;449.5;FALSE;FALSE;FALSE;FALSE;TRUE;FALSE;FALSE;FALSE;FALSE;" 52 - Te - Telurio"
53;"I";"Yodo";53;17;5;"No Metal";"Halógenos";"Sólido";"1,5,7";3;126.90447;4.93;184;113.5;FALSE;TRUE;FALSE;FALSE;TRUE;FALSE;FALSE;FALSE;TRUE;" 53 - I  - Yodo"
54;"Xe";"Xenón";54;18;5;"Gas Noble";"-";"Gas";"0";1;131293;0.00589;-107.1;-111.8;FALSE;FALSE;FALSE;TRUE;FALSE;FALSE;TRUE;FALSE;FALSE;" 54 - Xe - Xenón"
55;"Cs";"Cesio";55;1;6;"Metal";"Alcalino";"Líquido";"1";1;132.905452;1.87;669;28.4;TRUE;FALSE;FALSE;FALSE;FALSE;TRUE;FALSE;FALSE;FALSE;" 55 - Cs - Cesio"
56;"Ba";"Bario";56;2;6;"Metal";"Tierras alcalinas";"Sólido";"2";1;137327;3.5;1640;725;TRUE;FALSE;FALSE;FALSE;TRUE;FALSE;FALSE;FALSE;FALSE;" 56 - Ba - Bario"
57;"La";"Lantano";57;3;6;"Metal";"Lantánidos";"Sólido";"3";1;138.90547;6.15;3454;920;TRUE;FALSE;FALSE;FALSE;TRUE;FALSE;FALSE;FALSE;FALSE;" 57 - La - Lantano"
58;"Ce";"Cerio";58;3;6;"Metal";"Lantánidos";"Sólido";"3,4";2;140116;6.66;3257;798;TRUE;FALSE;FALSE;FALSE;TRUE;FALSE;FALSE;FALSE;FALSE;" 58 - Ce - Cerio"
59;"Pr";"Praseodimio";59;3;6;"Metal";"Lantánidos";"Sólido";"3,4";2;140.90766;6.77;3017;931;TRUE;FALSE;FALSE;FALSE;TRUE;FALSE;FALSE;FALSE;FALSE;" 59 - Pr - Praseodimio"
60;"Nd";"Neodimio";60;3;6;"Metal";"Lantánidos";"Sólido";"3";1;144242;7;3127;1016;TRUE;FALSE;FALSE;FALSE;TRUE;FALSE;FALSE;FALSE;FALSE;" 60 - Nd - Neodimio"
61;"Pm";"Promesa";61;3;6;"Metal";"Lantánidos";"Sólido";"3";1;145;7.26;3000;1042;TRUE;FALSE;FALSE;FALSE;TRUE;FALSE;FALSE;FALSE;FALSE;" 61 - Pm - Promesa"
62;"Sm";"Samario";62;3;6;"Metal";"Lantánidos";"Sólido";"2,3";2;150.36;7.52;1794;1074;TRUE;FALSE;FALSE;FALSE;TRUE;FALSE;FALSE;FALSE;FALSE;" 62 - Sm - Samario"
63;"Eu";"Europio";63;3;6;"Metal";"Lantánidos";"Sólido";"2,3";2;151964;5.24;1529;822;TRUE;FALSE;FALSE;FALSE;TRUE;FALSE;FALSE;FALSE;FALSE;" 63 - Eu - Europio"
64;"Gd";"Gadolinio";64;3;6;"Metal";"Lantánidos";"Sólido";"3";1;157.25;7.9;3273;1313;TRUE;FALSE;FALSE;FALSE;TRUE;FALSE;FALSE;FALSE;FALSE;" 64 - Gd - Gadolinio"
65;"Tb";"Terbio";65;3;6;"Metal";"Lantánidos";"Sólido";"3,4";2;158.92535;8.23;3230;1365;TRUE;FALSE;FALSE;FALSE;TRUE;FALSE;FALSE;FALSE;FALSE;" 65 - Tb - Terbio"
66;"Dy";"Disprosio";66;3;6;"Metal";"Lantánidos";"Sólido";"3";1;162.5;8.55;2567;1412;TRUE;FALSE;FALSE;FALSE;TRUE;FALSE;FALSE;FALSE;FALSE;" 66 - Dy - Disprosio"
67;"Ho";"Holmio";67;3;6;"Metal";"Lantánidos";"Sólido";"3";1;164.93033;8.8;2700;1474;TRUE;FALSE;FALSE;FALSE;TRUE;FALSE;FALSE;FALSE;FALSE;" 67 - Ho - Holmio"
68;"Er";"Erbio";68;3;6;"Metal";"Lantánidos";"Sólido";"3";1;167259;9.07;2868;1529;TRUE;FALSE;FALSE;FALSE;TRUE;FALSE;FALSE;FALSE;FALSE;" 68 - Er - Erbio"
69;"Tm";"Tulio";69;3;6;"Metal";"Lantánidos";"Sólido";"3,2";2;168.93422;9.32;1950;1545;TRUE;FALSE;FALSE;FALSE;TRUE;FALSE;FALSE;FALSE;FALSE;" 69 - Tm - Tulio"
70;"Yb";"Iterbio";70;3;6;"Metal";"Lantánidos";"Sólido";"2,3";2;173054;6.97;1196;819;TRUE;FALSE;FALSE;FALSE;TRUE;FALSE;FALSE;FALSE;FALSE;" 70 - Yb - Iterbio"
71;"Lu";"Lutecio";71;3;6;"Metal";"Lantánidos";"Sólido";"3";1;174.9668;9.84;3402;1663;TRUE;FALSE;FALSE;FALSE;TRUE;FALSE;FALSE;FALSE;FALSE;" 71 - Lu - Lutecio"
72;"Hf";"Hafnio";72;4;6;"Metal";"Lantánidos";"Sólido";"4";1;178.49;13.3;4600;2227;TRUE;FALSE;FALSE;FALSE;TRUE;FALSE;FALSE;FALSE;FALSE;" 72 - Hf - Hafnio"
73;"Ta";"Tantalio";73;5;6;"Metal";"Lantánidos";"Sólido";"5";1;180.94788;16.6;5425;2996;TRUE;FALSE;FALSE;FALSE;TRUE;FALSE;FALSE;FALSE;FALSE;" 73 - Ta - Tantalio"
74;"W";"Tungsteno";74;6;6;"Metal";"Lantánidos";"Sólido";"2,3,4,5,6";5;183.84;19.3;5660;3410;TRUE;FALSE;FALSE;FALSE;TRUE;FALSE;FALSE;FALSE;FALSE;" 74 - W  - Tungsteno"
75;"Re";"Renio";75;7;6;"Metal";"Lantánidos";"Sólido";"1,2,4,6,7";5;186207;21;5600;3180;TRUE;FALSE;FALSE;FALSE;TRUE;FALSE;FALSE;FALSE;FALSE;" 75 - Re - Renio"
76;"Os";"Osmio";76;8;6;"Metal";"Lantánidos";"Sólido";"2,3,4,6,8";5;190.23;22.6;5030;3045;TRUE;FALSE;FALSE;FALSE;TRUE;FALSE;FALSE;FALSE;FALSE;" 76 - Os - Osmio"
77;"Ir";"Iridio";77;9;6;"Metal";"Lantánidos";"Sólido";"2,3,4,6";4;192217;22.4;4130;2410;TRUE;FALSE;FALSE;FALSE;TRUE;FALSE;FALSE;FALSE;FALSE;" 77 - Ir - Iridio"
78;"Pt";"Platino";78;10;6;"Metal";"Lantánidos";"Sólido";"2,4";2;195084;21.4;3827;1772;TRUE;FALSE;FALSE;FALSE;TRUE;FALSE;FALSE;FALSE;FALSE;" 78 - Pt - Platino"
79;"Au";"Oro";79;11;6;"Metal";"Lantánidos";"Sólido";"1,3";2;196.966569;19.3;3080;1064;TRUE;FALSE;FALSE;FALSE;TRUE;FALSE;FALSE;FALSE;FALSE;" 79 - Au - Oro"
80;"Hg";"Mercurio";80;12;6;"Metal";"Lantánidos";"Líquido";"1,2";2;200592;13.5;357;-38.9;TRUE;FALSE;FALSE;FALSE;FALSE;TRUE;FALSE;FALSE;FALSE;" 80 - Hg - Mercurio"
81;"Tl";"Talio";81;13;6;"Metal";"Lantánidos";"Sólido";"1,3";2;204.3835;11.9;1457;303;TRUE;FALSE;FALSE;FALSE;TRUE;FALSE;FALSE;FALSE;FALSE;" 81 - Tl - Talio"
82;"Pb";"Dirigir";82;14;6;"Metal";"Lantánidos";"Sólido";"2,4";2;207.2;11.4;1740;327.5;TRUE;FALSE;FALSE;FALSE;TRUE;FALSE;FALSE;FALSE;FALSE;" 82 - Pb - Dirigir"
83;"Bi";"Bismuto";83;15;6;"Metal";"Lantánidos";"Sólido";"3,5";2;208.9804;9.75;1560;271;TRUE;FALSE;FALSE;FALSE;TRUE;FALSE;FALSE;FALSE;FALSE;" 83 - Bi - Bismuto"
84;"Po";"Polonio";84;16;6;"Metaloide";"-";"Sólido";"2,4";2;209;9.32;962;254;FALSE;FALSE;FALSE;FALSE;TRUE;FALSE;FALSE;FALSE;FALSE;" 84 - Po - Polonio"
85;"At";"Aestado";85;17;6;"No Metal";"Halógenos";"Sólido";"1,3,5,7";4;210;NA;337;302;FALSE;TRUE;FALSE;FALSE;TRUE;FALSE;FALSE;FALSE;TRUE;" 85 - At - Aestado"
86;"Rn";"Radón";86;18;6;"Gas Noble";"-";"Gas";"0";1;222;0.00973;-61.8;-71;FALSE;FALSE;FALSE;TRUE;FALSE;FALSE;TRUE;FALSE;FALSE;" 86 - Rn - Radón"
87;"Fr";"Francisco";87;1;7;"Metal";"Alcalino";"Líquido";"1";1;223;NA;677;27;TRUE;FALSE;FALSE;FALSE;FALSE;TRUE;FALSE;FALSE;FALSE;" 87 - Fr - Francisco"
88;"Ra";"Radio";88;2;7;"Metal";"Tierras alcalinas";"Sólido";"2";1;226;5;1140;700;TRUE;FALSE;FALSE;FALSE;TRUE;FALSE;FALSE;FALSE;FALSE;" 88 - Ra - Radio"
89;"Ac";"Actinio";89;3;7;"Metal";"Actínidos";"Sólido";"3";1;227;10.1;3200;1050;TRUE;FALSE;FALSE;FALSE;TRUE;FALSE;FALSE;FALSE;FALSE;" 89 - Ac - Actinio"
90;"Th";"Torio";90;3;7;"Metal";"Actínidos";"Sólido";"4";1;232.0377;11.7;4790;1750;TRUE;FALSE;FALSE;FALSE;TRUE;FALSE;FALSE;FALSE;FALSE;" 90 - Th - Torio"
91;"Pa";"Protactinio";91;3;7;"Metal";"Actínidos";"Sólido";"4,5";2;231.03588;15.4;4000;1570;TRUE;FALSE;FALSE;FALSE;TRUE;FALSE;FALSE;FALSE;FALSE;" 91 - Pa - Protactinio"
92;"U";"Uranio";92;3;7;"Metal";"Actínidos";"Sólido";"3,4,5,6";4;238.02891;19;3818;1132;TRUE;FALSE;FALSE;FALSE;TRUE;FALSE;FALSE;FALSE;FALSE;" 92 - U  - Uranio"
93;"Np";"Neptunio";93;3;7;"Metal";"Actínidos";"???";"3,4,5,6";4;237;20.2;3900;640;TRUE;FALSE;FALSE;FALSE;FALSE;FALSE;FALSE;TRUE;FALSE;" 93 - Np - Neptunio"
94;"Pu";"Plutonio";94;3;7;"Metal";"Actínidos";"???";"3,4,5,6";4;244;19.8;3232;641;TRUE;FALSE;FALSE;FALSE;FALSE;FALSE;FALSE;TRUE;FALSE;" 94 - Pu - Plutonio"
95;"Am";"Americio";95;3;7;"Metal";"Actínidos";"???";"3,4,5,6";4;243;13.7;2607;994;TRUE;FALSE;FALSE;FALSE;FALSE;FALSE;FALSE;TRUE;FALSE;" 95 - Am - Americio"
96;"Cm";"Curio";96;3;7;"Metal";"Actínidos";"???";"3";1;247;13.5;NA;1340;TRUE;FALSE;FALSE;FALSE;FALSE;FALSE;FALSE;TRUE;FALSE;" 96 - Cm - Curio"
97;"Bk";"Berkelio";97;3;7;"Metal";"Actínidos";"???";"3,4";2;247;14;NA;986;TRUE;FALSE;FALSE;FALSE;FALSE;FALSE;FALSE;TRUE;FALSE;" 97 - Bk - Berkelio"
98;"Cf";"Californio";98;3;7;"Metal";"Actínidos";"???";"3";1;251;NA;NA;NA;TRUE;FALSE;FALSE;FALSE;FALSE;FALSE;FALSE;TRUE;FALSE;" 98 - Cf - Californio"
99;"Es";"Einstenio";99;3;7;"Metal";"Actínidos";"???";"4";1;252;NA;NA;NA;TRUE;FALSE;FALSE;FALSE;FALSE;FALSE;FALSE;TRUE;FALSE;" 99 - Es - Einstenio"
100;"Fm";"Fermio";100;3;7;"Metal";"Actínidos";"???";"4";1;257;NA;NA;NA;TRUE;FALSE;FALSE;FALSE;FALSE;FALSE;FALSE;TRUE;FALSE;"100 - Fm - Fermio"
101;"Md";"Mendelevio";101;3;7;"Metal";"Actínidos";"???";"3,4";2;258;NA;NA;NA;TRUE;FALSE;FALSE;FALSE;FALSE;FALSE;FALSE;TRUE;FALSE;"101 - Md - Mendelevio"
102;"No";"Nobel";102;3;7;"Metal";"Actínidos";"???";"3,4";2;259;NA;NA;NA;TRUE;FALSE;FALSE;FALSE;FALSE;FALSE;FALSE;TRUE;FALSE;"102 - No - Nobel"
103;"Lr";"Laurencio";103;3;7;"Metal";"Actínidos";"???";"3,4";2;262;NA;NA;NA;TRUE;FALSE;FALSE;FALSE;FALSE;FALSE;FALSE;TRUE;FALSE;"103 - Lr - Laurencio"
104;"Rf";"Rutherfordio";104;3;7;"Metal";"Actínidos";"???";"4";1;267;NA;NA;NA;TRUE;FALSE;FALSE;FALSE;FALSE;FALSE;FALSE;TRUE;FALSE;"104 - Rf - Rutherfordio"
105;"Db";"Dubnio";105;3;7;"Metal";"Actínidos";"???";"4";1;268;NA;NA;NA;TRUE;FALSE;FALSE;FALSE;FALSE;FALSE;FALSE;TRUE;FALSE;"105 - Db - Dubnio"
106;"Sg";"Seaborgio";106;3;7;"Metal";"Actínidos";"???";"4";1;271;NA;NA;NA;TRUE;FALSE;FALSE;FALSE;FALSE;FALSE;FALSE;TRUE;FALSE;"106 - Sg - Seaborgio"
107;"Bh";"Bohrio";107;3;7;"Metal";"Actínidos";"???";"3,4,5";3;272;NA;NA;NA;TRUE;FALSE;FALSE;FALSE;FALSE;FALSE;FALSE;TRUE;FALSE;"107 - Bh - Bohrio"
108;"Hs";"Hassio";108;3;7;"Metal";"Actínidos";"???";"2,4,6,7";4;270;NA;NA;NA;TRUE;FALSE;FALSE;FALSE;FALSE;FALSE;FALSE;TRUE;FALSE;"108 - Hs - Hassio"
109;"Mt";"Meitnerio";109;3;7;"Metal";"Actínidos";"???";"2,3,4,6";4;276;NA;NA;NA;TRUE;FALSE;FALSE;FALSE;FALSE;FALSE;FALSE;TRUE;FALSE;"109 - Mt - Meitnerio"
110;"Ds";"Darmstadtio";110;3;7;"Metal";"Actínidos";"???";"2,4";2;281;NA;NA;NA;TRUE;FALSE;FALSE;FALSE;FALSE;FALSE;FALSE;TRUE;FALSE;"110 - Ds - Darmstadtio"
111;"Rg";"Roentgenio";111;3;7;"Metal";"Actínidos";"???";"2,3";2;280;NA;NA;NA;TRUE;FALSE;FALSE;FALSE;FALSE;FALSE;FALSE;TRUE;FALSE;"111 - Rg - Roentgenio"
112;"Cn";"Copérnico";112;3;7;"Metal";"Actínidos";"???";"1,2";2;285;NA;NA;NA;TRUE;FALSE;FALSE;FALSE;FALSE;FALSE;FALSE;TRUE;FALSE;"112 - Cn - Copérnico"
113;"Nh";"Nihonio";113;3;7;"Metal";"Actínidos";"???";"3";1;284;NA;NA;NA;TRUE;FALSE;FALSE;FALSE;FALSE;FALSE;FALSE;TRUE;FALSE;"113 - Nh - Nihonio"
114;"Fl";"Flerovio";114;3;7;"Metal";"Actínidos";"???";"2,4,6";3;289;NA;NA;NA;TRUE;FALSE;FALSE;FALSE;FALSE;FALSE;FALSE;TRUE;FALSE;"114 - Fl - Flerovio"
115;"Mc";"Moscovio";115;3;7;"Metal";"Actínidos";"???";"1,4,5";3;288;NA;NA;NA;TRUE;FALSE;FALSE;FALSE;FALSE;FALSE;FALSE;TRUE;FALSE;"115 - Mc - Moscovio"
116;"Lv";"Livermorio";116;3;7;"Metal";"Actínidos";"???";"3,4,5";3;293;NA;NA;NA;TRUE;FALSE;FALSE;FALSE;FALSE;FALSE;FALSE;TRUE;FALSE;"116 - Lv - Livermorio"
117;"Ts";"Tenesino";117;3;7;"Metal";"Actínidos";"???";"1,2,3";3;292;NA;NA;NA;TRUE;FALSE;FALSE;FALSE;FALSE;FALSE;FALSE;TRUE;FALSE;"117 - Ts - Tenesino"
118;"Og";"Oganesón";118;3;7;"Gas Noble";"-";"Gas";"0";1;294;NA;NA;NA;FALSE;FALSE;FALSE;TRUE;FALSE;FALSE;TRUE;FALSE;FALSE;"118 - Og - Oganesón"